# vtk DataFile Version 3.0
Thermal Simulation Result Time=12.3333
ASCII
DATASET POLYDATA
POINTS 55599 float
62.2772 -0.628601 1.85871
62.267 -0.542221 0.935815
63.2502 -0.281394 0.922
62.2772 -0.628601 1.85871
63.2502 -0.281394 0.922
63.0498 -0.419105 1.80297
-66.751 4.72278 1.79766
-66.2874 5.36287 1.99011
-66.0142 5.29851 1.01264
-66.751 4.72278 1.79766
-66.0142 5.29851 1.01264
-66.751 4.31597 0.7926
-66.751 5.11604 2.76923
-66.1232 6.06601 3.2353
-65.8195 6.09861 2.40614
-66.751 5.11604 2.76923
-65.8195 6.09861 2.40614
-66.2874 5.36287 1.99011
-66.751 1.10503 3.95631
-66.751 0.976125 2.96492
-66.751 -0.113059 2.981
-66.751 1.10503 3.95631
-66.751 -0.113059 2.981
-66.751 -0.065364 3.96533
-66.751 -1.24398 1.02442
-66.751 -1.20076 2.01902
-66.751 -0.177793 1.99554
-66.751 -1.24398 1.02442
-66.751 -0.177793 1.99554
-66.751 -0.246164 1.00556
65.8816 7.81773e-05 5.93719
64.8879 0.396969 6.21345
65.4031 0.311004 7.15587
65.8816 7.81773e-05 5.93719
65.4031 0.311004 7.15587
66.1665 9.2972e-05 7.02835
-66.751 5.11604 2.76923
-66.751 5.55581 3.85572
-66.4163 6.03454 4.03565
-66.751 5.11604 2.76923
-66.4163 6.03454 4.03565
-66.1232 6.06601 3.2353
-66.751 -4.32536 3.99738
-66.751 -4.16612 3.00908
-66.751 -5.17066 2.90239
-66.751 -4.32536 3.99738
-66.751 -5.17066 2.90239
-66.751 -5.63647 4.05422
-66.751 -4.16612 3.00908
-66.751 -3.97591 2.09381
-66.751 -4.79607 1.97615
-66.751 -4.16612 3.00908
-66.751 -4.79607 1.97615
-66.751 -5.17066 2.90239
-66.751 -5.63647 4.05422
-66.751 -5.11747 4.94967
-66.751 -4.30069 4.94967
-66.751 -5.63647 4.05422
-66.751 -4.30069 4.94967
-66.751 -4.32536 3.99738
-66.751 4.13594 2.86087
-66.751 3.12276 2.91339
-66.751 3.4404 3.92653
-66.751 4.13594 2.86087
-66.751 3.4404 3.92653
-66.751 4.50722 3.89783
-66.751 4.50722 3.89783
-66.751 3.4404 3.92653
-66.751 3.85021 4.94967
-66.751 4.50722 3.89783
-66.751 3.85021 4.94967
-66.751 4.89876 4.94967
-66.751 -1.26667 4.94967
-66.751 -1.19604 3.97442
-66.751 -2.25504 3.98427
-66.751 -1.26667 4.94967
-66.751 -2.25504 3.98427
-66.751 -2.3327 4.94967
-66.751 4.50722 3.89783
-66.751 4.89876 4.94967
-66.751 5.9986 4.94967
-66.751 4.50722 3.89783
-66.751 5.9986 4.94967
-66.751 5.55581 3.85572
-66.751 -3.19312 3.03894
-66.751 -3.27735 3.99271
-66.751 -2.25504 3.98427
-66.751 -3.19312 3.03894
-66.751 -2.25504 3.98427
-66.751 -2.2078 3.02007
-57.7162 6.73489 0.997807
-56.7859 6.79376 0.996685
-56.7473 6.73944 0.00893093
-57.7162 6.73489 0.997807
-56.7473 6.73944 0.00893093
-57.6748 6.68069 0.00906055
-66.751 -2.19787 2.05833
-66.751 -3.11687 2.1295
-66.751 -3.19312 3.03894
-66.751 -2.19787 2.05833
-66.751 -3.19312 3.03894
-66.751 -2.2078 3.02007
-52.8889 -6.84367 0.00889524
-51.9569 -6.8663 0.00882467
-51.996 -6.92466 0.996107
-52.8889 -6.84367 0.00889524
-51.996 -6.92466 0.996107
-52.9311 -6.90516 0.996254
-49.1848 -6.88469 0.00861479
-48.2636 -6.89005 0.00854504
-48.2898 -6.9444 0.996494
-49.1848 -6.88469 0.00861479
-48.2898 -6.9444 0.996494
-49.2137 -6.94009 0.996506
-45.5005 -6.90074 0.00833584
-44.5774 -6.9043 0.00826595
-44.5948 -6.95558 0.996408
-45.5005 -6.90074 0.00833584
-44.5948 -6.95558 0.996408
-45.5197 -6.95275 0.996449
-66.751 -2.25504 3.98427
-66.751 -3.27735 3.99271
-66.751 -3.33733 4.94967
-66.751 -2.25504 3.98427
-66.751 -3.33733 4.94967
-66.751 -2.3327 4.94967
-38.0603 -6.92903 0.00777251
-37.1212 -6.93256 0.00770141
-37.1339 -6.97798 0.995999
-38.0603 -6.92903 0.00777251
-37.1339 -6.97798 0.995999
-38.0729 -6.97482 0.996068
-34.2904 -6.94301 0.00748708
-33.3423 -6.9465 0.0074153
-33.3558 -6.98908 0.995779
-34.2904 -6.94301 0.00748708
-33.3558 -6.98908 0.995779
-34.3037 -6.9858 0.995854
-30.4827 -6.95698 0.00719879
-29.5243 -6.9605 0.00712623
-29.5362 -7.00023 0.995555
-30.4827 -6.95698 0.00719879
-29.5362 -7.00023 0.995555
-30.4954 -6.99682 0.995635
-65.5685 -5.43369 0.00994478
-64.942 -6.19283 0.00994478
-65.4468 -6.13863 1.38849
-65.5685 -5.43369 0.00994478
-65.4468 -6.13863 1.38849
-66.0513 -5.24782 0.996922
-26.6347 -6.97108 0.00690744
-25.6675 -6.97462 0.00683422
-25.6727 -7.01145 0.99533
-26.6347 -6.97108 0.00690744
-25.6727 -7.01145 0.99533
-26.6419 -7.00797 0.995408
-24.7017 -7.01316 0.99531
-25.6727 -7.01145 0.99533
-25.6675 -6.97462 0.00683422
-24.7017 -7.01316 0.99531
-25.6675 -6.97462 0.00683422
-24.6987 -6.97816 0.00676087
-66.751 -3.18876 0.00994478
-66.751 -3.39654 1.16678
-66.751 -2.26517 1.06334
-66.751 -3.18876 0.00994478
-66.751 -2.26517 1.06334
-66.751 -2.23166 0.00994478
-20.8112 -7.02639 0.995022
-21.7841 -7.02277 0.995106
-21.7877 -6.9888 0.00654047
-20.8112 -7.02639 0.995022
-21.7877 -6.9888 0.00654047
-20.8165 -6.99241 0.00646694
-16.9265 -7.03775 0.994802
-17.8967 -7.03414 0.994883
-17.9057 -7.00321 0.00624654
-16.9265 -7.03775 0.994802
-17.9057 -7.00321 0.00624654
-16.9357 -7.00682 0.0061731
-13.0507 -7.04908 0.994583
-14.0201 -7.04552 0.994661
-14.0285 -7.01763 0.00595299
-13.0507 -7.04908 0.994583
-14.0285 -7.01763 0.00595299
-13.0583 -7.02124 0.00587953
-66.751 -1.24398 1.02442
-66.751 -0.246164 1.00556
-66.751 -0.301162 0.00994478
-66.751 -1.24398 1.02442
-66.751 -0.301162 0.00994478
-66.751 -1.2636 0.00994478
-9.16774 -7.06041 0.994361
-10.1402 -7.05691 0.994436
-10.1457 -7.03205 0.00565901
-9.16774 -7.06041 0.994361
-10.1457 -7.03205 0.00565901
-9.17239 -7.03565 0.00558532
-66.0142 5.29851 1.01264
-65.6404 5.34596 0.00994478
-66.234 4.62607 0.00994478
-66.751 -5.17066 2.90239
-66.2934 -5.39672 2.09035
-65.8305 -6.09744 2.43605
-66.751 -5.17066 2.90239
-65.8305 -6.09744 2.43605
-66.1463 -6.06353 3.29833
-5.2719 -7.07177 0.994138
-6.24671 -7.0683 0.99421
-6.24959 -7.04648 0.00536403
-5.2719 -7.07177 0.994138
-6.24959 -7.04648 0.00536403
-5.27415 -7.05008 0.00529017
-66.751 -4.40862 1.01808
-66.751 -3.39654 1.16678
-66.751 -3.18876 0.00994478
-66.751 -4.40862 1.01808
-66.751 -3.18876 0.00994478
-66.751 -4.00092 0.00994478
-1.37527 -7.08311 0.993913
-2.34825 -7.07968 0.993983
-2.34851 -7.0609 0.00506866
-1.37527 -7.08311 0.993913
-2.34851 -7.0609 0.00506866
-1.3751 -7.06449 0.00499496
2.50205 -7.0943 0.993689
1.53627 -7.09101 0.993755
1.53856 -7.07524 0.00477436
2.50205 -7.0943 0.993689
1.53856 -7.07524 0.00477436
2.50422 -7.07874 0.00470125
-66.751 -3.27735 3.99271
-66.751 -3.19312 3.03894
-66.751 -4.16612 3.00908
-66.751 -3.27735 3.99271
-66.751 -4.16612 3.00908
-66.751 -4.32536 3.99738
-66.751 -3.97591 2.09381
-66.751 -3.11687 2.1295
-66.751 -3.39654 1.16678
-65.5685 -5.43369 0.00994478
-66.0513 -5.24782 0.996922
-66.1276 -4.75633 0.00994478
-66.1276 -4.75633 0.00994478
-66.0513 -5.24782 0.996922
-66.751 -4.40862 1.01808
-66.1276 -4.75633 0.00994478
-66.751 -4.40862 1.01808
-66.751 -4.00092 0.00994478
11.0757 -7.11935 0.993184
10.1312 -7.11595 0.993243
10.1306 -7.10629 0.00412383
11.0757 -7.11935 0.993184
10.1306 -7.10629 0.00412383
11.0739 -7.10968 0.00405241
-66.751 3.99918 0.00994478
-66.751 4.31597 0.7926
-66.0142 5.29851 1.01264
-66.751 3.99918 0.00994478
-66.0142 5.29851 1.01264
-66.234 4.62607 0.00994478
-66.751 -3.11687 2.1295
-66.751 -2.19787 2.05833
-66.751 -2.26517 1.06334
-66.751 -3.11687 2.1295
-66.751 -2.26517 1.06334
-66.751 -3.39654 1.16678
13.9171 -7.12664 0.993024
12.9672 -7.12403 0.993079
12.9615 -7.11648 0.0039095
13.9171 -7.12664 0.993024
12.9615 -7.11648 0.0039095
13.9096 -7.11989 0.00383771
-66.751 0.738449 0.99232
-66.751 0.648477 0.00994478
-66.751 -0.301162 0.00994478
-66.751 0.738449 0.99232
-66.751 -0.301162 0.00994478
-66.751 -0.246164 1.00556
18.7254 -7.14104 0.992831
17.753 -7.13751 0.99285
17.737 -7.13368 0.00354793
18.7254 -7.14104 0.992831
17.737 -7.13368 0.00354793
18.7092 -7.1372 0.00347432
-66.751 -2.26517 1.06334
-66.751 -1.24398 1.02442
-66.751 -1.2636 0.00994478
-66.751 -2.26517 1.06334
-66.751 -1.2636 0.00994478
-66.751 -2.23166 0.00994478
22.6527 -7.1478 0.993497
21.664 -7.1474 0.993125
21.6485 -7.14658 0.00325177
22.6527 -7.1478 0.993497
21.6485 -7.14658 0.00325177
22.6403 -7.14698 0.00317669
28.6239 -6.94568 0.00272365
29.6172 -6.85849 0.00264844
29.6115 -6.8863 1.00938
28.6239 -6.94568 0.00272365
29.6115 -6.8863 1.00938
28.6178 -6.95705 1.00564
32.5707 -6.48319 0.00242482
33.5452 -6.35785 0.00235104
33.5421 -6.42584 1.02894
32.5707 -6.48319 0.00242482
33.5421 -6.42584 1.02894
32.5657 -6.53932 1.02409
-66.751 -1.20076 2.01902
-66.751 -1.18076 2.9985
-66.751 -0.113059 2.981
-66.751 -1.20076 2.01902
-66.751 -0.113059 2.981
-66.751 -0.177793 1.99554
-66.751 -2.19787 2.05833
-66.751 -2.2078 3.02007
-66.751 -1.18076 2.9985
-66.751 -2.19787 2.05833
-66.751 -1.18076 2.9985
-66.751 -1.20076 2.01902
-66.751 -1.20076 2.01902
-66.751 -1.24398 1.02442
-66.751 -2.26517 1.06334
-66.751 -1.20076 2.01902
-66.751 -2.26517 1.06334
-66.751 -2.19787 2.05833
-65.8305 -6.09744 2.43605
-66.2934 -5.39672 2.09035
-66.0513 -5.24782 0.996922
-65.8305 -6.09744 2.43605
-66.0513 -5.24782 0.996922
-65.4468 -6.13863 1.38849
-66.751 -0.113059 2.981
-66.751 0.976125 2.96492
-66.751 0.851054 1.977
-66.751 -0.113059 2.981
-66.751 0.851054 1.977
-66.751 -0.177793 1.99554
-66.751 -4.40862 1.01808
-66.0513 -5.24782 0.996922
-66.2934 -5.39672 2.09035
-66.751 -4.40862 1.01808
-66.2934 -5.39672 2.09035
-66.751 -4.79607 1.97615
-66.751 -1.18076 2.9985
-66.751 -2.2078 3.02007
-66.751 -2.25504 3.98427
-66.751 -1.18076 2.9985
-66.751 -2.25504 3.98427
-66.751 -1.19604 3.97442
52.8001 -3.23131 0.000893184
53.7261 -2.96115 0.000823074
53.818 -3.14748 0.98035
52.8001 -3.23131 0.000893184
53.818 -3.14748 0.98035
52.8859 -3.43383 0.98022
54.9425 -3.20996 2.89113
54.844 -3.02474 1.94358
55.7813 -2.7199 1.93671
54.9425 -3.20996 2.89113
55.7813 -2.7199 1.93671
55.8466 -2.90421 2.88217
-66.751 2.27538 3.94467
-66.751 2.06092 2.94482
-66.751 0.976125 2.96492
-66.751 2.27538 3.94467
-66.751 0.976125 2.96492
-66.751 1.10503 3.95631
44.952 4.98711 1.09455
44.9454 4.80418 0.00148789
43.9897 4.95073 0.00156025
44.952 4.98711 1.09455
43.9897 4.95073 0.00156025
43.989 5.11709 1.08879
36.3221 6.08616 1.04477
37.2869 5.97576 1.04965
37.2889 5.87684 0.00206759
36.3221 6.08616 1.04477
37.2889 5.87684 0.00206759
[...]
CELL_DATA 18533
SCALARS Temperature float 1
LOOKUP_TABLE default
13.9649
13.9649
13.9649
13.9649
13.9649
13.9649
14.0851
14.0851
14.0851
14.0851
16.1579
16.1579
13.9649
13.9649
14.0851
14.0851
14.0851
14.0851
14.0851
14.0851
14.0851
14.0851
14.0851
14.0851
14.0851
14.0851
14.0851
14.0851
14.0851
14.0851
15.127
15.127
14.0851
14.0851
13.9649
13.9649
13.9649
13.9649
13.9649
13.9649
14.0851
14.0851
13.9649
13.9649
13.9649
13.9649
13.9649
13.9649
13.9649
13.9649
13.9649
13.9649
13.9649
13.9649
14.0851
14.0851
13.9649
13.9649
13.9766
13.9766
13.9814
13.9814
14.0851
14.0851
13.9862
13.9862
13.9649
13.9649
13.9649
13.991
13.991
14.0851
14.0851
13.9957
13.9957
14.0005
14.0005
14.0851
14.0851
14.0851
13.9649
13.9649
13.9649
14.0102
14.0102
13.9649
13.9649
14.0851
14.0851
14.0134
14.0134
14.0851
14.0851
14.0195
14.0195
14.0851
14.0851
14.0238
14.0238
13.9649
13.9649
13.9649
13.9649
14.0851
14.0851
14.0851
14.0851
14.0851
14.0851
13.9649
13.9649
14.0851
14.0851
13.9649
13.9649
14.0851
14.0851
13.9649
13.9649
13.9649
13.9649
14.0851
14.0851
15.1228
15.1228
15.4859
15.4859
15.2569
15.2569
16.2897
16.2897
15.2296
15.2296
16.1921
16.1921
15.2374
15.2374
15.9116
15.9116
15.2424
15.2424
15.8719
15.8719
15.2463
15.2463
14.0851
14.0851
14.0851
14.0851
15.073
15.073
15.1007
15.1007
15.8151
15.8151
15.7863
15.7863
15.756
15.756
15.7255
15.7255
15.6949
15.6949
15.6376
15.6376
15.6088
15.6088
13.9649
13.9649
15.5812
15.5812
15.5813
15.5813
14.0851
14.0851
14.0851
14.0851
15.5296
15.5296
13.9649
13.9649
13.9649
13.9649
15.4535
15.4535
16.0535
16.0535
15.5593
15.5593
13.9649
13.9649
13.9796
13.9796
15.6038
15.6038
13.9649
13.9649
15.3456
15.3456
15.4198
15.4198
14.0851
14.0851
13.9649
13.9649
15.9198
15.9198
15.4779
15.4779
15.504
15.504
14.9696
14.9696
15.5552
15.5552
13.9649
13.9649
14.9173
14.9173
13.9649
13.9649
15.6662
15.6662
16.0535
16.0535
15.7808
15.7808
15.8493
15.8493
15.8779
15.8779
15.9501
15.9501
14.0098
14.0098
13.9649
13.9649
14.0851
14.0851
13.9649
13.9649
15.5413
15.5413
14.925
14.925
13.9649
13.9649
15.3793
15.3793
14.9941
14.9941
13.9649
13.9649
13.9649
13.9649
13.9649
13.9649
15.9085
15.9085
15.8867
15.8867
14.0851
14.0851
13.9649
13.9649
15.3627
15.3627
15.3858
15.3858
13.9649
13.9649
15.4757
15.4757
13.9649
13.9649
13.9649
13.9649
15.4959
15.4959
15.5051
15.5051
13.9649
13.9649
15.5312
15.5312
13.9649
13.9649
15.5767
15.5767
13.9649
13.9649
15.6042
15.6042
13.9649
13.9649
15.6322
15.6322
13.9649
13.9649
15.6655
15.6655
15.6675
15.6675
15.8379
15.8379
15.7223
15.7223
15.7239
15.7239
15.8379
15.8379
15.781
15.781
15.8102
15.8102
15.9661
15.8402
15.8402
15.8427
15.8427
15.8853
15.8853
15.9044
15.9044
15.9421
15.9421
15.8583
15.8583
16.0209
16.0209
16.1295
16.1295
16.0709
16.0709
15.4919
15.4919
15.1333
15.1333
15.221
15.221
13.9649
13.9649
14.7495
14.7495
15.2965
15.6365
15.6365
13.9649
13.9649
13.9649
13.9649
15.8647
15.8647
15.908
15.908
15.7212
15.7212
15.5045
15.5045
15.4683
15.4683
15.8499
15.8499
15.7934
15.7934
14.1144
14.1144
13.9969
13.9969
14.0851
14.0851
13.9649
13.9649
14.0851
14.0851
13.9649
13.9649
13.9649
13.9649
15.9608
15.9608
13.9649
13.9649
13.9649
13.9649
13.9649
13.9649
13.9649
13.9649
13.9649
13.9649
13.9649
13.9649
13.9649
13.9649
13.9649
13.9649
13.9649
14.0851
14.0851
13.9649
13.9649
13.9649
13.9649
13.9649
13.9649
13.9649
13.9649
13.9649
13.9649
13.9649
13.9649
13.9767
13.9767
13.981
13.981
15.7576
15.7576
15.7429
15.7429
15.5981
15.5981
15.6365
15.6365
15.6006
15.6006
15.36
15.36
13.9856
13.9856
13.99
13.99
13.9649
13.9649
13.9649
13.9649
13.9649
13.9649
13.9649
13.9649
13.9649
13.9649
13.9649
13.9649
13.9945
13.9945
13.999
13.999
15.3494
15.3494
15.3296
15.3296
15.2436
15.2436
15.1261
15.1261
14.0035
14.0035
14.8677
14.8677
15.2852
15.2852
14.0078
14.0078
14.9173
14.9173
14.005
14.005
14.012
14.012
14.0161
14.0161
14.0232
14.0232
14.0524
14.0524
13.9649
13.9649
14.0167
14.0167
13.9975
13.9975
14.6365
14.6365
14.945
14.945
14.8476
14.8476
14.8445
14.8445
13.9649
13.9649
15.0569
15.0569
13.9649
13.9649
14.0158
14.0158
13.9649
13.9649
13.9649
13.9649
13.9649
13.9649
13.9649
13.9649
13.9649
13.9649
14.0158
14.0158
14.0121
14.0121
14.01
14.01
13.9649
13.9649
13.9649
13.9649
13.9649
13.9649
13.9649
13.9649
13.9649
13.9649
13.9649
13.9649
13.9649
13.9649
15.0506
15.0506
14.8434
14.8434
14.8278
14.8278
13.9649
13.9649
13.9649
13.9649
13.9649
13.9649
15.7063
15.7063
13.9649
13.9649
13.9649
13.9649
13.9649
13.9649
13.9649
13.9649
13.9649
13.9649
14.0093
14.0093
13.9649
13.9649
13.9649
13.9649
13.9649
13.9649
13.9649
13.9649
13.9649
13.9649
13.9649
13.9649
13.9649
13.9649
13.9649
13.9649
13.9649
13.9649
13.9649
13.9649
13.9649
13.9649
15.378
15.378
15.378
15.378
15.1064
15.1064
15.4919
15.4919
15.3688
15.3688
13.9649
13.9649
13.9649
13.9649
13.9649
13.9649
13.9649
13.9649
13.9649
13.9649
13.9649
13.9649
13.9649
13.9649
15.5413
15.5413
15.312
15.312
15.3186
15.3186
15.3942
15.3942
15.7836
15.7836
15.7055
15.7055
15.8889
15.8889
15.8889
15.8889
15.4836
15.4836
14.0113
14.0113
13.9988
13.9988
13.9649
13.9649
13.9649
13.9649
13.9862
13.9862
13.9649
13.9649
15.8318
15.8318
15.6891
15.6891
16.1535
16.1535
15.0457
14.0453
14.0453
14.0133
14.0133
14.0028
14.0028
13.9899
13.9899
14.0185
14.0185
14.0176
14.0176
16.1486
16.1486
16.007
16.007
16.1405
16.1405
16.2897
16.2897
15.8219
15.8219
15.8218
15.8218
14.0499
14.0499
14.0565
14.0565
14.052
14.052
14.0446
14.0446
14.0448
14.0448
14.0237
14.0237
15.9631
15.9631
15.97
15.97
16.0595
16.0595
16.1921
16.1921
16.1318
16.1318
16.1301
16.1301
14.056
14.056
14.0245
14.0245
14.0231
14.0231
14.0241
14.0241
14.0239
14.0239
14.0193
14.0193
15.9501
15.9501
16.0631
16.0631
16.0616
16.0616
15.9664
15.9664
15.9665
15.9665
15.9286
15.9286
15.9116
15.9116
15.9505
15.9505
15.9505
15.9505
13.9649
14.0493
14.0493
14.02
14.02
14.016
14.016
14.0195
14.0195
14.0193
14.0193
14.0146
14.0146
13.9649
13.9649
13.9649
13.9649
15.9329
15.9329
15.9353
15.9353
15.8796
15.8796
13.9649
13.9649
13.9649
13.9649
14.0199
14.0199
14.0159
14.0159
14.0148
14.0148
14.0136
14.0136
14.0145
14.0145
14.01
14.01
13.9649
13.9649
13.9649
15.8999
15.8999
15.8853
15.8853
15.8733
15.8733
15.8832
15.8832
15.9157
15.9157
15.9155
15.9155
14.0156
14.0156
14.0115
14.0115
14.0078
14.0078
15.8701
15.8701
15.8585
15.8585
15.8212
15.8212
15.8493
15.8493
15.8869
15.8869
15.8787
15.8787
15.8188
15.8188
15.8557
15.8557
15.8506
15.8506
15.8458
15.8458
15.8511
15.8511
14.0093
14.0093
14.0099
14.0099
14.0054
14.0054
14.0114
14.0114
14.0072
14.0072
14.0035
14.0035
14.005
14.005
14.0052
14.0052
14.0007
14.0007
15.8575
15.8575
14.0851
14.0851
14.0851
14.0851
15.8693
15.8693
15.8736
15.8736
15.831
15.831
15.7926
15.7926
15.8121
15.8121
14.0071
14.0071
14.0029
14.0029
13.999
13.999
14.0005
14.0005
14.0006
14.0006
13.9959
13.9959
13.9649
13.9649
13.9649
13.9649
16.0535
16.0535
15.7881
15.7881
15.8245
15.8245
15.8219
15.8219
15.8028
15.8028
15.7632
15.7632
15.7828
15.7828
14.0028
14.0028
13.9986
13.9986
13.9945
13.9945
13.9958
13.9958
13.9957
13.9957
13.9911
13.9911
15.0975
15.0975
15.7572
15.7572
15.7943
15.7943
15.7931
15.7931
15.7736
15.7736
15.7333
15.7333
15.7534
15.7534
14.0851
14.0851
13.9984
13.9984
13.9943
13.9943
13.99
13.99
13.991
13.991
13.9909
13.9909
13.9863
13.9863
15.8256
15.8256
13.9649
13.9649
15.7267
15.7267
15.7638
15.7638
15.763
15.763
15.7516
15.7516
15.7438
15.7438
15.7035
15.7035
13.9941
13.9941
13.99
13.99
13.9856
13.9856
13.9862
13.9862
13.9861
13.9861
13.9814
13.9814
13.9649
13.9649
15.8379
15.8379
15.8379
15.8379
14.0851
14.0851
15.9582
15.9582
15.696
15.696
15.7332
15.7332
15.7324
15.7324
15.7141
15.7141
15.6751
15.6751
15.6949
15.6949
13.9649
13.9649
13.9649
13.9649
13.9898
13.9898
13.9857
13.9857
13.981
13.981
13.9814
13.9814
13.9812
13.9812
13.9765
13.9765
15.6667
15.6667
15.7027
15.7027
15.7019
15.7019
15.6376
15.6376
15.6734
15.6734
15.6731
15.6731
15.6935
15.6935
15.6858
15.6858
15.6472
15.6472
15.5084
15.5084
13.9855
13.9855
13.9813
13.9813
13.9765
13.9765
13.9766
13.9766
13.9763
13.9763
13.9649
13.9649
13.9649
13.9649
13.9649
13.9649
15.6579
15.6579
15.6189
15.6189
15.6396
15.6396
13.9812
13.9812
13.9768
13.9768
13.9649
13.9649
13.9649
13.9649
13.9649
13.9649
13.9649
13.9649
13.9649
13.9649
15.6088
15.6088
15.6444
15.6444
15.6445
15.6445
15.6244
15.6244
15.5962
15.5962
15.6111
15.6111
13.9767
13.9767
13.9649
13.9649
13.9649
13.9649
13.9649
13.9649
13.9649
13.9649
13.9649
13.9649
15.5879
15.5879
15.6102
15.6102
15.6089
15.6089
15.5963
15.5963
15.5695
15.5695
15.5837
15.5837
13.9649
13.9649
13.9649
13.9649
13.9649
13.9649
13.9649
13.9649
13.9649
13.9649
13.9649
13.9649
15.555
15.555
15.5615
15.5615
15.5823
15.5823
15.5696
15.5696
15.5441
15.5441
15.5574
15.5574
13.9649
13.9649
13.9649
13.9649
13.9649
13.9649
13.9649
13.9649
13.9649
13.9649
13.9649
13.9649
15.5292
15.5292
15.5353
15.5353
15.5558
15.5558
15.5509
15.5509
15.5447
15.5447
15.5191
15.5191
15.5034
15.5034
15.5089
15.5089
15.5296
15.5296
13.9649
13.9649
13.9649
13.9649
13.9649
13.9649
13.9649
13.9649
13.9649
13.9649
13.9649
13.9649
15.5255
15.5255
15.5203
15.5203
15.494
15.494
13.9649
13.9649
13.9649
13.9649
13.9649
13.9649
15.3476
15.3476
15.4766
15.4766
15.4817
15.4817
15.503
15.503
15.4518
15.4518
15.4559
15.4559
15.4761
15.4761
15.47
15.47
15.4797
15.4797
15.5002
15.5002
13.9649
13.9649
13.9649
13.9649
13.9649
13.9649
13.9649
13.9649
13.9649
13.9649
13.9649
13.9649
13.9649
13.9649
13.9649
13.9649
13.9649
13.9649
15.0358
15.0358
15.0729
15.0729
15.4267
15.4267
15.4291
15.4291
15.4508
15.4508
15.4726
15.4726
15.4466
15.4466
15.4548
15.4548
13.9649
13.9649
13.9649
13.9649
13.9649
13.9649
13.9649
13.9649
13.9649
13.9649
13.9649
13.9649
15.447
15.447
15.4458
15.4458
15.4002
15.4002
13.9649
13.9649
13.9649
13.9649
13.9649
13.9649
13.9649
13.9649
15.1381
15.1381
15.1134
15.1134
14.7351
14.7351
14.77
14.77
14.9046
14.9046
15.6043
15.6043
15.9042
15.9042
15.9044
15.9044
15.3958
15.3958
15.2122
15.2122
15.1821
15.1821
15.3719
15.3719
15.3709
15.3709
15.4168
15.4168
15.239
15.239
15.2404
15.2404
15.3426
15.3426
13.9649
13.9649
15.8673
15.8673
13.9649
13.9649
15.9013
15.9013
15.9397
15.9397
15.9289
15.9289
15.9338
15.9338
15.9036
15.9036
15.9352
15.9352
15.9672
15.9672
15.8736
15.8736
15.0382
15.0382
15.4436
15.4436
15.3181
15.3181
15.3564
15.3564
15.3317
15.3317
15.1189
15.1189
13.9649
13.9649
13.9649
13.9649
13.9649
13.9649
13.9868
13.9868
13.9649
13.9649
13.9649
13.9649
13.9967
13.9967
13.9992
13.9992
13.9649
13.9649
15.8736
15.8736
15.7828
15.7828
15.7828
15.7828
15.7767
15.7767
15.8372
15.8372
15.8374
15.8374
15.5122
15.5123
15.5123
15.2791
15.2791
15.7784
15.7784
15.8062
15.8062
15.8074
15.8074
15.8427
15.8427
15.8427
15.8427
13.9992
13.9992
15.8121
15.8121
13.9649
15.8121
15.8121
13.9868
13.9868
13.9871
13.9871
14.0851
14.0851
15.2575
15.2575
15.3475
15.3475
15.749
15.749
15.9649
15.9649
13.9649
13.9649
15.9692
15.9692
15.0812
15.0812
15.211
15.211
14.0851
14.0851
15.1339
15.1339
15.1046
15.1046
14.8277
14.8277
14.8816
14.8816
14.7464
14.7464
14.7464
14.7464
14.8271
14.8271
14.9092
14.9092
15.9667
15.9667
14.0851
14.0851
15.9798
15.9798
13.9649
13.9649
15.4766
15.4766
16.2841
16.2841
16.1481
16.1823
16.1823
15.5661
15.5661
13.9649
13.9649
16.0425
16.0425
13.9649
13.9649
13.9649
13.9649
13.9649
13.9649
16.1655
16.1655
13.9649
13.9649
13.9649
13.9649
13.9649
13.9649
13.9649
13.9649
15.8779
15.8779
15.8968
15.8968
16.1536
16.1536
15.7429
15.7429
16.0743
16.0743
15.8498
15.8498
15.4536
15.4536
15.4093
15.4093
16.0468
16.0468
15.7963
15.7963
15.7403
15.7403
15.8141
15.8141
15.8894
15.8894
14.0212
14.0212
14.0202
14.0202
14.0189
14.0189
16.1891
16.1891
16.2574
16.2574
13.9649
13.9649
13.9649
13.9649
15.7472
15.7472
15.7534
15.7534
15.9213
15.9213
15.9453
15.9453
15.9198
15.9198
15.7534
15.7534
15.7196
15.7196
15.4548
15.4548
15.4649
15.4649
15.4651
15.4651
15.9198
15.9198
15.8578
15.849
15.849
15.4488
15.4488
15.6101
15.6101
15.585
15.585
15.4762
15.4762
15.4879
15.4879
13.9649
13.9649
13.9649
13.9649
13.9649
13.9649
13.9649
15.5006
15.5006
15.5051
15.5051
13.9649
13.9649
13.9649
13.9649
13.9649
13.9649
13.9649
13.9649
13.9649
13.9649
13.9649
13.9649
14.0147
14.0147
13.9649
13.9649
13.9649
13.9649
15.4882
15.4882
15.4797
15.4797
14.0148
14.0148
15.7802
15.7802
15.7627
15.7627
15.7387
15.7387
15.6342
15.6342
15.5123
15.5123
15.423
15.423
15.5421
15.5421
15.5818
15.5818
15.4182
15.4182
15.5391
15.5391
15.586
15.586
15.5122
15.5122
15.7576
15.7576
15.754
15.754
15.7587
15.7587
15.5994
15.5994
15.6082
15.6082
15.6468
15.6468
15.5823
15.5823
15.5847
15.5847
15.5122
15.5122
15.3295
15.3295
15.3295
15.3295
15.5573
15.5573
15.4132
15.4132
15.8379
15.8379
15.3942
15.3942
15.3858
15.3858
15.3749
15.3749
15.2498
15.2498
15.7203
15.7203
15.7576
15.7576
15.7576
15.7576
15.1096
15.1096
15.1912
15.1912
15.1945
15.1945
13.9649
13.9649
13.9649
13.9649
15.1912
15.1912
15.1999
15.1999
15.1999
15.1999
15.5127
15.5127
15.5312
15.5312
15.5256
15.5256
13.9649
13.9649
13.9649
13.9649
13.9649
13.9649
13.9649
13.9649
13.9649
13.9649
13.9649
13.9649
13.9649
13.9649
13.9649
13.9649
13.9649
13.9649
13.9649
13.9649
13.9649
13.9649
13.9649
13.9649
13.9649
13.9649
13.9649
13.9649
15.5368
15.5368
13.9649
13.9649
13.9649
13.9649
13.9649
13.9649
13.9649
13.9649
15.6673
15.6673
15.6602
15.6602
15.663
15.663
15.667
15.667
15.6949
15.6949
15.6907
15.6907
13.9649
13.9649
13.9649
13.9649
13.9649
13.9649
15.3296
15.3296
15.3121
15.3121
15.3455
15.3455
15.3861
15.3861
15.7239
15.7239
15.7176
15.7176
15.1142
15.1142
15.1142
15.1142
15.2996
15.2996
15.7239
15.7239
15.6364
15.6364
15.6192
15.6192
15.6365
15.6365
15.6365
15.6365
15.6365
15.6001
15.6001
15.5401
15.5401
15.6354
15.6354
15.2829
15.2829
15.292
15.292
15.5108
15.5108
15.3283
15.3283
15.3567
15.3567
15.6949
15.6949
15.6884
15.6884
15.6352
15.6352
15.6322
15.6322
15.6329
15.6329
13.9649
13.9649
13.9649
13.9649
13.9649
13.9649
13.9649
13.9649
13.9649
13.9649
13.9649
13.9649
15.6178
15.6178
13.9649
13.9649
15.5377
15.5377
13.9649
13.9649
13.9649
13.9649
13.9649
13.9649
13.9649
13.9649
13.9649
13.9649
15.5509
15.5509
13.9649
13.9649
13.9649
13.9649
13.9649
13.9649
15.5574
15.5574
15.5616
15.5616
15.5631
15.5631
15.5766
15.5766
15.5894
15.5894
15.3702
15.3702
15.6041
15.6041
15.1587
15.1587
15.6148
15.6148
15.1461
15.1461
15.6111
15.6111
15.2829
15.2829
15.0454
15.0454
15.5872
15.5872
15.1802
15.1802
15.5837
15.5837
14.9275
14.9275
14.7151
14.7151
15.1142
15.1142
14.94
14.94
14.988
14.988
14.9201
14.9201
14.8942
14.8942
13.9649
13.9649
14.9197
14.9197
14.8823
14.8823
13.9649
13.9649
13.9969
13.9969
13.9965
13.9965
13.9969
13.9969
13.9966
13.9966
13.9769
13.9769
13.9649
13.9649
13.9649
13.9649
13.9649
13.9649
13.9649
13.9649
13.9649
13.9649
13.9649
13.9649
13.9649
13.9649
13.9649
13.9649
14.7982
14.7982
14.8161
14.8161
14.8971
14.8971
15.8709
15.8709
16.036
16.036
15.9365
15.9365
15.9474
15.9474
16.0617
16.0617
16.2224
16.2224
16.0617
16.0617
13.9649
13.9649
13.9649
13.9649
13.9649
13.9649
15.8004
15.8004
13.9649
13.9649
13.9649
13.9649
13.9649
13.9649
13.9649
13.9649
14.8166
14.8166
14.7769
14.7769
14.9199
14.9199
15.0913
15.0913
14.8797
14.8797
15.19
15.19
13.9649
13.9649
13.9649
13.9649
13.9649
13.9649
13.9649
13.9649
13.9649
13.9649
13.9649
13.9649
13.9649
13.9649
13.9649
13.9649
13.9649
13.9649
13.9649
13.9649
13.9649
13.9649
13.9649
13.9649
13.9649
13.9649
13.9649
13.9649
13.9649
13.9649
13.9649
13.9649
13.9649
13.9649
13.9649
13.9649
13.9649
13.9649
13.9649
13.9649
13.9649
13.9649
13.9649
13.9649
13.9649
13.9649
13.9649
13.9649
13.9649
13.9649
13.9649
13.9649
13.9649
13.9649
13.9649
13.9649
13.9649
13.9649
13.9649
13.9649
13.9649
13.9649
13.9649
13.9649
13.9914
13.9914
14.0155
14.0155
14.0178
14.0178
14.0181
14.0181
14.0429
14.0429
14.0517
14.0517
14.0546
14.0546
14.0548
14.0548
14.056
14.056
14.0565
14.0565
14.0565
14.0565
14.0556
14.0556
14.0498
14.0498
14.0243
14.0243
14.0242
14.0242
14.0239
14.0239
14.02
14.02
14.0199
14.0199
15.1199
15.1199
15.26
15.26
14.8788
14.8788
15.1951
15.1951
15.3633
15.3633
15.2831
15.2831
15.3387
15.3387
14.0182
14.0182
15.8805
15.8805
14.0174
14.0174
14.0156
14.0156
14.0143
14.0143
14.0134
14.0134
14.0115
14.0115
14.0113
14.0113
14.0102
14.0102
14.0094
14.0094
14.0072
14.0072
14.0071
14.0071
14.0061
14.0061
14.0052
14.0052
14.0029
14.0029
14.0027
14.0027
14.0019
14.0019
14.001
14.001
13.9986
13.9986
13.9984
13.9984
13.9976
13.9976
13.9968
13.9968
13.9649
13.9649
13.9649
13.9649
13.9649
13.9649
13.9649
13.9649
13.9649
13.9649
13.9649
13.9649
13.9649
13.9649
13.9649
13.9649
13.9943
13.9943
13.9941
13.9941
13.9934
13.9934
13.9926
13.9926
13.99
13.99
13.9898
13.9898
13.9892
13.9892
13.9884
13.9884
13.9858
13.9858
13.9854
13.9854
13.985
13.985
13.9841
13.9841
13.9814
13.9814
15.1533
15.1533
15.525
15.525
15.8805
15.8805
13.9813
13.9813
15.4187
15.4187
15.5988
15.5988
15.4517
15.4517
15.5413
15.5413
15.4535
15.4535
15.5568
15.5568
13.9812
13.9812
13.9767
13.9767
13.9767
13.9767
13.9769
13.9769
13.9769
13.9769
13.9649
13.9649
15.9002
15.9002
15.8982
15.8982
13.9767
13.9767
13.9649
13.9649
13.9649
13.9649
15.9065
15.9065
13.9649
13.9649
13.9649
13.9649
13.9649
13.9649
13.9649
13.9649
13.9649
13.9649
13.9649
13.9649
13.9649
13.9649
13.9649
13.9649
13.9649
13.9649
13.9649
13.9649
13.9649
13.9649
13.9649
13.9649
13.9649
13.9649
15.4904
15.4904
15.8627
15.8627
15.6581
15.6581
15.9454
15.9454
15.7392
15.7392
15.8889
15.8889
15.7806
15.7806
15.9246
15.9246
13.9649
13.9649
13.9649
13.9649
13.9649
13.9649
13.9649
13.9649
13.9649
13.9649
13.9649
13.9649
14.0177
14.0177
14.0062
14.0062
13.9649
13.9649
14.0113
14.0113
13.9987
13.9987
13.9649
13.9649
13.9649
13.9649
13.9922
13.9922
13.9862
13.9862
13.9649
13.9649
14.0006
14.0006
13.9649
13.9649
13.9649
13.9649
13.9649
13.9649
13.9649
13.9649
13.9649
13.9649
13.9649
13.9649
13.9649
13.9649
15.8387
15.8387
16.086
16.086
16.0072
16.0072
16.0824
16.0824
16.0258
16.0258
16.1223
16.1223
16.2897
16.2897
16.079
16.079
14.0528
14.0528
14.0546
14.0546
14.0453
14.0453
14.0067
14.0067
14.0497
14.0497
14.0087
14.0087
14.0177
14.0177
14.0249
14.0249
16.0821
16.0821
15.9779
15.9779
16.0951
16.0951
15.973
15.973
14.0851
14.0851
15.4957
15.4957
15.9773
15.9773
16.1392
16.1392
16.1921
16.1921
15.9686
15.9686
15.5122
15.5122
14.0248
14.0248
14.024
14.024
14.0566
14.0566
14.0531
14.0531
14.0244
14.0244
14.0238
14.0238
14.0565
14.0565
14.0225
14.0225
14.0852
14.0852
14.0851
14.0851
14.0851
14.0851
13.9649
15.9618
15.9618
15.9439
15.9439
15.9506
15.9506
15.9501
15.9501
15.9583
15.9583
15.9711
15.9711
15.978
15.978
15.9379
15.9379
14.0203
14.0203
14.0192
14.0192
14.0242
14.0242
14.0242
14.0242
14.021
14.021
14.0195
14.0195
14.0245
14.0245
14.0179
14.0179
15.6668
15.6668
15.6849
15.6849
15.6384
15.6384
14.0851
14.0851
14.0851
14.0851
13.9649
13.9649
15.6574
15.6574
15.6446
15.6446
15.6413
15.6413
15.6376
15.6376
14.0851
14.0851
15.6026
15.6026
15.624
15.624
14.0851
14.0851
14.0851
14.0851
14.8626
14.8626
14.0851
14.0851
15.9299
15.9299
15.9622
15.9622
15.9132
15.9132
15.9396
15.9396
15.9232
15.9232
15.9116
15.9116
15.918
15.918
15.9074
15.9074
13.9649
14.0152
14.0152
14.0147
14.0147
14.0199
14.0199
14.0197
14.0197
14.0166
14.0166
14.0148
14.0148
14.0202
14.0202
14.0107
14.0107
15.4662
15.4662
14.0851
14.0851
14.0851
14.0098
14.0098
15.258
15.258
15.9318
15.9318
15.9081
15.9081
14.013
14.013
15.8852
15.8852
14.0665
15.8771
15.8771
15.8869
15.8869
15.894
15.894
15.8805
15.8805
15.8546
15.8546
13.9649
13.9649
13.9649
13.9649
15.5122
15.5122
15.5122
15.5122
13.9649
13.9649
13.9649
13.9649
13.9649
13.9649
13.9649
13.9649
13.9649
13.9649
13.9649
13.9649
13.9649
13.9649
15.5809
15.5809
15.5987
15.5987
15.6041
15.6041
15.6111
15.6111
14.0108
14.0108
14.01
14.01
14.0156
14.0156
14.0065
14.0065
13.991
13.991
14.0109
14.0109
13.9649
13.9649
13.9872
13.9872
15.4366
15.4366
15.3281
15.3281
15.3279
15.3279
15.2969
15.2969
13.9649
13.9649
13.9775
13.9775
13.9649
13.9649
13.9649
13.9649
13.9741
13.9741
15.3635
15.3635
15.5122
15.5122
15.2139
15.2139
15.1999
15.1999
13.9741
13.9741
13.9649
13.9649
13.9649
13.9649
15.6384
15.6384
15.6571
15.6571
15.6101
15.6101
15.8574
15.8574
15.846
15.846
15.8557
15.8557